config_start_time = '2000-01-01_12:00:00'
config_run_duration = '00-00-00_12:00:00'
config_do_restart = .true.
